/*--------------------------------*- C++ -*----------------------------------*\
| =========                 |                                                 |
| \\      /  F ield         | OpenFOAM: The Open Source CFD Toolbox           |
|  \\    /   O peration     | Version:  2.1.0                                 |
|   \\  /    A nd           | Web:      www.OpenFOAM.org                      |
|    \\/     M anipulation  |                                                 |
\*---------------------------------------------------------------------------*/
FoamFile
{
    version     2.0;
    format      ascii;
    class       volScalarField;
    location    "0";
    object      k;
}
// * * * * * * * * * * * * * * * * * * * * * * * * * * * * * * * * * * * * * //

#include "${FOAM_CASE}/constant/boundaryConditions/basic";

dimensions      [ 0 2 -1 0 0 0 0 ];

internalField   $turbulence.initialnuSgs;

boundaryField
{
#   include "${WM_PROJECT_DIR}/etc/caseDicts/setConstraintTypes";

    inletGroup
    {
        type    zeroGradient;
    }

    wallGroup
    {
        type           nutUSpaldingWallFunction;
        value          $:turbulence.initialnuSgs;
    }

    ambienceGroup
    {
        type            inletOutlet;
        value           uniform 0;
        inletValue      $:turbulence.initialnuSgs;
    }

    outflowGroup
    {
        type            inletOutlet;
        value           uniform 0;
        inletValue      $:turbulence.initialnuSgs;
    }

    farfieldGroup
    {
        type            freestream;
        freestreamValue $:turbulence.initialnuSgs;
    }

    slipGroup
    {
        type        slip;
    }

}

// ************************************************************************* //
