/*--------------------------------*- C++ -*----------------------------------*\
| =========                 |                                                 |
| \\      /  F ield         | OpenFOAM: The Open Source CFD Toolbox           |
|  \\    /   O peration     | Version:  2.1.0                                 |
|   \\  /    A nd           | Web:      www.OpenFOAM.org                      |
|    \\/     M anipulation  |                                                 |
\*---------------------------------------------------------------------------*/
FoamFile
{
    version     2.0;
    format      ascii;
    class       volScalarField;
    location    "0";
    object      p;
}
// * * * * * * * * * * * * * * * * * * * * * * * * * * * * * * * * * * * * * //

#include "${FOAM_CASE}/constant/boundaryConditions/basic";

dimensions      [ 0 2 -2 0 0 0 0 ];

internalField   $pressure.ambient;

boundaryField
{
#   include "${WM_PROJECT_DIR}/etc/caseDicts/setConstraintTypes";

    inletGroup
    {
        type    zeroGradient;
    }

    wallGroup
    {
        type    zeroGradient;
    }

    ambienceGroup
    {
        type    totalPressure;
        gamma   1;
        value   $internalField;
        p0      $internalField;
    }

    outflowGroup
    {
        type    fixedValue;
        value   $internalField;
    }

    farfieldGroup
    {
        type            freestreamPressure;
    }

    slipGroup
    {
        type        slip;
    }
}


// ************************************************************************* //
