/*--------------------------------*- C++ -*----------------------------------*\
| =========                 |                                                 |
| \\      /  F ield         | OpenFOAM: The Open Source CFD Toolbox           |
|  \\    /   O peration     | Version:  4.x                                   |
|   \\  /    A nd           | Web:      www.OpenFOAM.org                      |
|    \\/     M anipulation  |                                                 |
\*---------------------------------------------------------------------------*/
FoamFile
{
    version     2.0;
    format      ascii;
    class       volScalarField;
    location    "0.1";
    object      p;
}
// * * * * * * * * * * * * * * * * * * * * * * * * * * * * * * * * * * * * * //

dimensions      [0 2 -2 0 0 0 0];

internalField   nonuniform List<scalar> 
61125
(
354.372
354.13
354.467
353.952
352.787
351.26
349.5
347.589
345.579
343.512
341.399
339.259
337.084
334.891
332.635
330.378
327.994
325.884
353.915
354.779
354.731
353.959
352.731
351.17
349.402
347.491
345.482
343.415
341.303
339.165
336.995
334.805
332.561
330.273
327.735
324.544
351.794
354.583
354.759
353.999
352.765
351.206
349.431
347.514
345.503
343.436
341.328
339.194
337.031
334.844
332.606
330.304
327.863
325.337
350.694
354.809
354.965
354.099
352.83
351.258
349.476
347.556
345.546
343.481
341.374
339.242
337.081
334.898
332.674
330.396
328.01
325.426
351.635
355.225
355.217
354.27
352.957
351.367
349.571
347.639
345.618
343.545
341.439
339.31
337.16
334.991
332.791
330.549
328.246
325.918
354.102
355.917
355.583
354.51
353.122
351.498
349.69
347.75
345.731
343.661
341.556
339.428
337.284
335.127
332.953
330.764
328.565
326.397
355.764
356.802
356.074
354.848
353.375
351.709
349.872
347.912
345.875
343.794
341.689
339.569
337.442
335.311
333.178
331.05
328.944
326.89
344.714
351.345
353.41
353.501
352.551
351.1
349.397
347.528
345.544
343.491
341.397
339.273
337.105
334.908
332.639
330.37
327.971
325.849
345.717
352.167
353.689
353.524
352.52
351.033
349.31
347.432
345.444
343.39
341.298
339.176
337.013
334.82
332.564
330.265
327.719
324.53
344.787
352.081
353.735
353.577
352.551
351.059
349.337
347.46
345.471
343.417
341.327
339.206
337.046
334.852
332.601
330.287
327.829
325.277
346.173
352.656
354.018
353.715
352.637
351.122
349.379
347.488
345.494
343.441
341.357
339.243
337.09
334.903
332.665
330.376
327.98
325.392
347.761
353.238
354.292
353.897
352.763
351.233
349.493
347.602
345.598
343.533
341.438
339.319
337.17
334.993
332.781
330.529
328.224
325.911
351.824
354.306
354.784
354.192
352.963
351.369
349.593
347.684
345.674
343.613
341.528
339.421
337.287
335.128
332.946
330.746
328.542
326.369
354.099
355.314
355.327
354.544
353.227
351.59
349.796
347.877
345.852
343.773
341.677
339.567
337.443
335.307
333.166
331.032
328.924
326.87
353.704
353.46
353.98
353.641
352.586
351.105
349.395
347.53
345.552
343.505
341.41
339.286
337.121
334.935
332.677
330.419
328.025
325.913
353.611
354.041
354.195
353.65
352.537
351.031
349.314
347.445
345.466
343.416
341.319
339.191
337.028
334.841
332.594
330.307
327.767
324.598
353.471
353.914
354.235
353.694
352.571
351.067
349.349
347.478
345.495
343.443
341.347
339.222
337.064
334.878
332.636
330.329
327.869
325.299
350.111
353.993
354.425
353.805
352.644
351.129
349.401
347.523
345.538
343.485
341.388
339.262
337.105
334.922
332.694
330.411
328.023
325.459
350.032
354.311
354.696
354.015
352.79
351.245
349.501
347.609
345.61
343.549
341.453
339.332
337.188
335.019
332.814
330.565
328.253
325.914
351.648
355.023
355.105
354.286
352.98
351.395
349.629
347.724
345.721
343.656
341.558
339.434
337.292
335.139
332.966
330.774
328.569
326.388
356.643
356.262
355.687
354.66
353.245
351.603
349.806
347.88
345.859
343.787
341.69
339.579
337.457
335.328
333.192
331.06
328.947
326.882
351.457
354.159
354.522
353.955
352.78
351.244
349.498
347.606
345.605
343.538
341.421
339.276
337.092
334.891
332.625
330.366
327.978
325.893
352.197
354.823
354.762
353.98
352.747
351.169
349.4
347.501
345.502
343.438
341.325
339.181
337.001
334.802
332.548
330.258
327.717
324.532
351.78
354.64
354.769
354.017
352.785
351.216
349.444
347.537
345.531
343.462
341.349
339.206
337.033
334.836
332.589
330.282
327.83
325.281
352.061
354.907
354.948
354.125
352.863
351.282
349.497
347.579
345.568
343.497
341.385
339.245
337.076
334.886
332.654
330.371
327.982
325.4
351.625
355.073
355.165
354.281
352.977
351.376
349.581
347.653
345.636
343.564
341.457
339.322
337.164
334.985
332.776
330.526
328.216
325.872
352.296
355.525
355.532
354.523
353.149
351.517
349.705
347.762
345.737
343.661
341.554
339.425
337.277
335.116
332.939
330.744
328.54
326.364
353.13
356.025
355.941
354.827
353.389
351.72
349.878
347.915
345.878
343.8
341.697
339.575
337.443
335.305
333.169
331.038
328.928
326.869
365.125
358.677
355.966
354.453
352.912
351.236
349.444
347.54
345.548
343.492
341.391
339.258
337.087
334.899
332.642
330.378
327.971
325.824
365.745
359.307
356.188
354.463
352.87
351.161
349.353
347.445
345.453
343.399
341.301
339.167
336.998
334.808
332.559
330.264
327.704
324.478
366.495
359.263
356.197
354.486
352.892
351.193
349.395
347.486
345.489
343.431
341.332
339.199
337.037
334.849
332.607
330.296
327.831
325.265
367.765
359.456
356.344
354.581
352.962
351.253
349.437
347.519
345.523
343.469
341.371
339.241
337.081
334.898
332.669
330.386
327.985
325.378
367.258
359.594
356.545
354.727
353.075
351.362
349.549
347.62
345.606
343.542
341.441
339.313
337.164
334.996
332.793
330.545
328.229
325.893
366.095
359.785
356.825
354.939
353.232
351.491
349.655
347.714
345.701
343.642
341.545
339.422
337.28
335.124
332.95
330.756
328.549
326.373
365.095
360.013
357.155
355.215
353.462
351.693
349.841
347.885
345.851
343.779
341.678
339.561
337.437
335.309
333.177
331.047
328.934
326.871
357.905
357.648
356.559
355.186
353.638
351.92
350.053
348.08
346.042
343.96
341.853
339.736
337.619
335.509
333.411
331.336
329.303
327.342
358.744
358.46
357.072
355.553
353.936
352.167
350.263
348.271
346.216
344.124
342.014
339.905
337.806
335.72
333.657
331.629
329.657
327.766
364.512
359.504
357.581
355.982
354.299
352.472
350.529
348.519
346.453
344.353
342.24
340.133
338.044
335.979
333.95
331.971
330.06
328.237
364.88
360.196
358.163
356.535
354.79
352.889
350.893
348.845
346.751
344.632
342.514
340.415
338.346
336.311
334.32
332.387
330.53
328.762
362.974
360.333
358.716
357.164
355.376
353.409
351.357
349.272
347.151
345.014
342.887
340.79
338.732
336.718
334.761
332.873
331.065
329.347
356.066
359.944
359.379
357.98
356.166
354.116
351.981
349.829
347.653
345.481
343.339
341.243
339.199
337.208
335.286
333.439
331.674
329.999
360.221
361.118
360.523
359.099
357.166
355
352.773
350.547
348.31
346.099
343.937
341.826
339.782
337.803
335.899
334.078
332.346
330.705
357.424
361.903
362.192
360.651
358.518
356.17
353.794
351.441
349.117
346.845
344.642
342.516
340.468
338.5
336.617
334.816
333.107
331.486
368.828
366.901
365.338
363
360.353
357.683
355.085
352.549
350.105
347.758
345.502
343.34
341.268
339.293
337.408
335.619
333.922
332.314
371.627
372.093
369.259
365.844
362.45
359.44
356.581
353.844
351.261
348.817
346.499
344.294
342.197
340.205
338.314
336.522
334.823
333.214
356.388
356.416
355.93
354.948
353.52
351.812
349.975
348.034
346.002
343.923
341.83
339.731
337.624
335.513
333.408
331.327
329.288
327.326
360.038
357.489
356.521
355.348
353.832
352.072
350.198
348.236
346.191
344.102
342.003
339.904
337.806
335.714
333.643
331.612
329.642
327.759
361.114
358.439
357.186
355.819
354.209
352.392
350.475
348.48
346.418
344.319
342.218
340.125
338.043
335.978
333.944
331.962
330.049
328.227
361.263
359.669
358.018
356.459
354.73
352.826
350.847
348.811
346.725
344.613
342.506
340.413
338.343
336.308
334.318
332.389
330.531
328.762
362.013
360.304
358.775
357.146
355.346
353.376
351.329
349.239
347.12
344.986
342.864
340.771
338.716
336.707
334.752
332.867
331.058
329.341
360.849
361.188
359.827
358.12
356.189
354.102
351.953
349.788
347.623
345.461
343.326
341.235
339.195
337.211
335.292
333.442
331.677
329.999
361.115
362.21
361.061
359.292
357.227
355.014
352.761
350.507
348.28
346.072
343.912
341.814
339.775
337.802
335.901
334.076
332.35
330.707
369.088
365.259
363.112
360.971
358.665
356.235
353.798
351.418
349.093
346.817
344.613
342.496
340.46
338.503
336.627
334.84
333.127
331.497
370.732
368.13
365.893
363.194
360.428
357.715
355.083
352.545
350.1
347.746
345.491
343.329
341.259
339.283
337.402
335.615
333.918
332.314
372.574
373.229
370.014
366.332
362.786
359.544
356.603
353.856
351.267
348.81
346.489
344.289
342.195
340.202
338.313
336.521
334.823
333.215
358.75
357.507
356.311
355.072
353.558
351.85
350.013
348.065
346.032
343.952
341.851
339.738
337.622
335.513
333.415
331.341
329.306
327.34
359.303
358.63
356.953
355.472
353.854
352.094
350.222
348.249
346.201
344.113
342.011
339.909
337.814
335.732
333.67
331.641
329.664
327.767
362.73
360.064
357.722
356.006
354.273
352.444
350.515
348.507
346.439
344.34
342.231
340.127
338.04
335.978
333.951
331.975
330.063
328.235
369.474
361.721
358.602
356.615
354.752
352.862
350.878
348.826
346.734
344.626
342.516
340.422
338.354
336.321
334.332
332.401
330.541
328.766
373.341
362.862
359.49
357.364
355.43
353.439
351.373
349.266
347.136
345.001
342.877
340.781
338.72
336.707
334.754
332.871
331.067
329.349
371.918
363.866
360.416
358.277
356.242
354.139
351.988
349.819
347.643
345.477
343.341
341.251
339.209
337.222
335.298
333.449
331.682
330.004
361.079
362.861
361.402
359.43
357.277
355.051
352.786
350.529
348.292
346.087
343.92
341.813
339.766
337.79
335.893
334.079
332.35
330.709
363.1
364.454
363.101
361.025
358.64
356.222
353.813
351.443
349.122
346.86
344.66
342.53
340.479
338.507
336.622
334.825
333.114
331.49
371.736
368.677
366.119
363.266
360.447
357.729
355.103
352.558
350.098
347.742
345.495
343.336
341.264
339.286
337.406
335.62
333.925
332.318
374.875
374.823
370.502
366.299
362.712
359.546
356.626
353.885
351.286
348.83
346.511
344.31
342.212
340.218
338.326
336.532
334.832
333.223
352.933
356.645
356.446
355.193
353.664
351.94
350.066
348.088
346.04
343.956
341.851
339.736
337.618
335.505
333.406
331.33
329.294
327.328
354.473
357.339
356.908
355.54
353.957
352.186
350.269
348.266
346.208
344.121
342.018
339.91
337.806
335.716
333.651
331.621
329.647
327.754
358.863
358.697
357.565
356.005
354.341
352.51
350.551
348.522
346.447
344.349
342.241
340.136
338.045
335.98
333.951
331.971
330.056
328.227
362.429
360.012
358.303
356.586
354.816
352.917
350.902
348.832
346.734
344.624
342.513
340.415
338.343
336.308
334.319
332.388
330.529
328.759
368.59
361.538
359.115
357.282
355.425
353.462
351.39
349.272
347.145
345.016
342.893
340.792
338.73
336.713
334.757
332.869
331.061
329.341
364.141
361.809
359.935
358.145
356.206
354.144
351.978
349.802
347.628
345.471
343.335
341.238
339.191
337.203
335.284
333.44
331.676
329.998
363.984
362.111
360.916
359.218
357.193
355.038
352.817
350.559
348.314
346.1
343.933
341.826
339.78
337.803
335.9
334.08
332.344
330.699
354.27
361.542
362.186
360.7
358.546
356.175
353.795
351.422
349.09
346.824
344.633
342.512
340.466
338.498
336.613
334.815
333.106
331.482
362.745
365.701
365.089
363.014
360.411
357.733
355.12
352.573
350.107
347.75
345.5
343.341
341.273
339.296
337.414
335.627
333.93
332.321
383.492
374.606
370.054
366.253
362.723
359.536
356.605
353.841
351.241
348.795
346.486
344.29
342.197
340.207
338.319
336.529
334.833
333.228
366.713
360.668
357.546
355.519
353.717
351.911
350.027
348.051
346.01
343.934
341.836
339.726
337.615
335.508
333.411
331.335
329.298
327.334
367.463
360.989
357.85
355.827
353.994
352.15
350.238
348.241
346.19
344.105
342.003
339.897
337.8
335.718
333.656
331.628
329.653
327.759
368.028
361.66
358.274
356.221
354.348
352.453
350.507
348.487
346.42
344.325
342.218
340.117
338.033
335.976
333.952
331.975
330.062
328.234
364.023
360.927
358.401
356.678
354.802
352.85
350.859
348.811
346.731
344.623
342.508
340.409
338.34
336.31
334.325
332.395
330.536
328.764
360.478
361.483
359.315
357.321
355.39
353.386
351.331
349.233
347.115
344.984
342.86
340.763
338.705
336.701
334.753
332.87
331.065
329.346
362.319
360.646
359.551
358.013
356.119
354.073
351.95
349.795
347.634
345.477
343.341
341.246
339.203
337.218
335.297
333.451
331.685
330.005
362.496
361.832
360.955
359.249
357.19
354.979
352.739
350.498
348.277
346.074
343.906
341.8
339.761
337.787
335.891
334.078
332.351
330.709
354.7
361.516
362.023
360.662
358.532
356.166
353.79
351.455
349.118
346.843
344.634
342.505
340.462
338.499
336.619
334.824
333.116
331.494
365
367.498
366.01
363.3
360.451
357.689
355.07
352.528
350.078
347.724
345.465
343.303
341.238
339.269
337.396
335.615
333.925
332.32
385.555
376.13
370.594
366.435
362.82
359.622
356.677
353.91
351.307
348.842
346.514
344.312
342.206
340.212
338.324
336.533
334.834
333.223
389.974
379.032
373.347
368.711
364.727
361.227
358.054
355.15
352.432
349.877
347.482
345.225
343.094
341.079
339.172
337.368
335.661
334.048
397.436
382.951
375.773
370.649
366.341
362.59
359.271
356.229
353.415
350.803
348.365
346.057
343.892
341.849
339.926
338.111
336.393
334.765
383.617
380.459
376.007
371.345
367.131
363.381
360.024
356.933
354.071
351.41
348.934
346.624
344.437
342.387
340.454
338.635
336.913
335.284
384.451
379.457
375.587
371.476
367.539
363.896
360.561
357.468
354.587
351.929
349.444
347.106
344.911
342.844
340.904
339.073
337.337
335.699
372.82
377.02
374.776
371.265
367.562
364.028
360.729
357.678
354.839
352.188
349.708
347.384
345.197
343.131
341.186
339.349
337.613
335.971
370.215
375.382
374.018
370.92
367.506
364.161
360.962
357.948
355.118
352.472
349.99
347.662
345.482
343.401
341.449
339.608
337.866
336.218
372.508
374.652
373.454
370.546
367.295
364.051
360.936
357.982
355.193
352.568
350.107
347.787
345.584
343.532
341.587
339.748
338.007
336.361
373.752
374.106
372.95
370.286
367.237
364.107
361.041
358.114
355.339
352.72
350.253
347.926
345.735
343.672
341.72
339.873
338.128
336.479
370.891
373.897
372.569
369.952
367.002
363.982
360.993
358.103
355.354
352.752
350.297
347.986
345.805
343.749
341.804
339.961
338.216
336.564
371.253
373.756
372.455
369.901
366.99
363.986
361.017
358.15
355.415
352.819
350.363
348.046
345.858
343.791
341.842
339.998
338.257
336.607
373.412
373.604
372.075
369.632
366.886
363.955
361.011
358.157
355.432
352.849
350.404
348.094
345.913
343.855
341.911
340.071
338.336
336.694
379.017
374.874
372.422
369.704
366.872
363.932
360.981
358.134
355.415
352.834
350.388
348.072
345.888
343.827
341.886
340.044
338.301
336.591
379.347
373.899
371.854
369.522
366.847
363.959
361.054
358.234
355.531
352.958
350.518
348.205
346.018
343.96
342.014
340.194
338.477
336.917
379.658
376.293
372.115
368.216
364.584
361.178
358.043
355.138
352.411
349.864
347.472
345.22
343.09
341.076
339.169
337.367
335.664
334.051
384.777
380.441
375.269
370.542
366.37
362.652
359.307
356.249
353.422
350.802
348.35
346.05
343.886
341.844
339.921
338.106
336.391
334.768
388.65
383.213
376.591
371.48
367.183
363.407
360.021
356.917
354.051
351.398
348.925
346.613
344.435
342.387
340.454
338.633
336.913
335.288
384.27
380.958
376.239
371.742
367.652
363.956
360.587
357.473
354.589
351.914
349.428
347.099
344.903
342.84
340.898
339.067
337.336
335.699
387.542
381.97
376.481
371.827
367.736
364.069
360.756
357.678
354.841
352.189
349.713
347.381
345.193
343.131
341.189
339.356
337.623
335.984
389.732
381.228
375.908
371.61
367.752
364.257
361.01
357.991
355.138
352.482
350
347.665
345.461
343.386
341.433
339.592
337.854
336.21
386.414
380.25
375.29
371.209
367.512
364.114
360.959
357.994
355.207
352.577
350.106
347.784
345.594
343.532
341.586
339.75
338.012
336.366
379.42
378.138
374.526
370.949
367.483
364.195
361.074
358.145
355.344
352.72
350.248
347.916
345.727
343.66
341.709
339.866
338.123
336.474
380.429
377.138
373.692
370.407
367.178
364.04
361.009
358.103
355.358
352.755
350.296
347.979
345.799
343.743
341.799
339.96
338.216
336.563
375.763
376.402
373.602
370.457
367.167
364.035
361.034
358.15
355.413
352.815
350.354
348.032
345.842
343.778
341.828
339.988
338.248
336.597
374.926
375.225
372.843
370.015
367.048
364.011
361.027
358.151
355.422
352.836
350.391
348.083
345.905
343.849
341.905
340.065
338.323
336.674
377.141
376.058
373.256
370.106
366.998
363.964
360.991
358.129
355.41
352.827
350.378
348.064
345.882
343.823
341.882
340.039
338.293
336.579
377.58
374.93
372.459
369.844
366.971
364.015
361.084
358.241
355.523
352.94
350.495
348.188
346.009
343.957
342.014
340.192
338.469
336.901
386.489
377.047
372.348
368.278
364.592
361.243
358.095
355.165
352.441
349.886
347.482
345.222
343.089
341.074
339.169
337.369
335.667
334.054
395.339
383.353
375.843
370.745
366.547
362.725
359.361
356.287
353.448
350.814
348.359
346.057
343.893
341.853
339.927
338.109
336.392
334.768
390.111
382.134
376.512
371.579
367.278
363.487
360.064
356.941
354.071
351.408
348.938
346.618
344.441
342.39
340.458
338.635
336.909
335.281
383.626
381.475
376.822
372.141
367.859
364.062
360.664
357.531
354.631
351.94
349.447
347.108
344.91
342.846
340.904
339.071
337.339
335.7
393.876
383.843
377.09
372.103
367.865
364.137
360.788
357.718
354.861
352.197
349.704
347.383
345.195
343.132
341.187
339.352
337.618
335.979
393.65
383.132
376.802
371.988
367.977
364.369
361.063
358.017
355.17
352.499
350
347.661
345.463
343.394
341.443
339.602
337.862
336.217
396.865
382.39
375.922
371.407
367.605
364.173
360.982
358.006
355.213
352.581
350.107
347.789
345.604
343.543
341.594
339.752
338.011
336.365
388.845
379.667
374.897
371.086
367.583
364.271
361.117
358.152
355.363
352.732
350.252
347.921
345.731
343.668
341.719
339.876
338.132
336.485
378.445
376.707
373.725
370.375
367.153
364.053
361.028
358.115
355.355
352.752
350.302
348
345.83
343.775
341.826
339.982
338.237
336.584
370.914
374.445
373.082
370.247
367.146
364.087
361.075
358.179
355.417
352.805
350.333
348.009
345.829
343.776
341.839
340.003
338.263
336.609
369.412
373.326
372.203
369.755
366.953
364.004
361.033
358.159
355.428
352.848
350.408
348.105
345.934
343.882
341.937
340.094
338.35
336.7
371.46
373.339
372.298
369.779
366.927
363.987
361.03
358.153
355.415
352.822
350.367
348.051
345.875
343.825
341.893
340.055
338.309
336.592
371.909
372.229
371.522
369.53
366.897
364.016
361.1
358.246
355.52
352.935
350.487
348.178
346.005
343.96
342.024
340.207
338.487
336.921
392.461
381.171
374.24
369.139
364.906
361.288
358.092
355.173
352.442
349.888
347.49
345.227
343.089
341.069
339.164
337.363
335.661
334.048
387.951
382.575
376.397
371.071
366.647
362.764
359.302
356.237
353.413
350.793
348.347
346.051
343.889
341.851
339.927
338.112
336.395
334.772
390.119
385.329
377.867
372.105
367.454
363.533
360.08
356.95
354.074
351.415
348.942
346.622
344.439
342.385
340.452
338.629
336.908
335.281
395.987
385.069
377.931
372.506
368.023
364.101
360.619
357.483
354.601
351.927
349.439
347.107
344.912
342.846
340.903
339.07
337.34
335.704
394.412
385.407
377.874
372.452
368.018
364.193
360.805
357.732
354.877
352.207
349.713
347.383
345.192
343.128
341.184
339.35
337.618
335.98
395.6
383.787
377.154
372.24
368.081
364.383
361.038
357.979
355.14
352.484
349.993
347.658
345.462
343.393
341.44
339.599
337.862
336.219
396.76
383.131
376.433
371.765
367.748
364.2
360.987
358.012
355.22
352.589
350.114
347.787
345.599
343.533
341.58
339.738
337.999
336.356
389.96
380.423
375.383
371.386
367.693
364.273
361.096
358.13
355.346
352.723
350.252
347.926
345.737
343.67
341.714
339.866
338.122
336.474
380.495
377.941
374.355
370.772
367.321
364.081
361.014
358.108
355.365
352.772
350.318
348.003
345.819
343.757
341.804
339.957
338.209
336.555
374.166
375.846
373.662
370.603
367.32
364.112
361.051
358.134
355.385
352.787
350.34
348.03
345.85
343.787
341.836
339.988
338.239
336.583
371.627
374.558
372.872
370.137
367.124
364.038
361.025
358.153
355.44
352.864
350.424
348.115
345.933
343.87
341.917
340.067
338.315
336.662
372.946
374.628
372.942
370.17
367.116
364.036
361.02
358.121
355.385
352.806
350.371
348.072
345.897
343.839
341.892
340.04
338.284
336.564
371.855
373.393
372.21
369.899
367.056
364.049
361.083
358.228
355.51
352.935
350.5
348.2
346.025
343.971
342.023
340.194
338.462
336.886
397.94
383.586
375.065
369.387
364.966
361.299
358.086
355.15
352.409
349.847
347.459
345.201
343.065
341.065
339.164
337.364
335.661
334.05
399.727
385.624
377.179
371.337
366.812
362.886
359.444
356.324
353.457
350.82
348.363
346.062
343.92
341.86
339.931
338.112
336.393
334.767
400.058
385.915
377.821
372.064
367.462
363.531
360.057
356.916
354.051
351.401
348.93
346.591
344.421
342.384
340.456
338.635
336.914
335.286
396.236
384.267
377.396
372.189
367.915
364.115
360.658
357.524
354.631
351.954
349.483
347.129
344.903
342.832
340.884
339.049
337.323
335.69
390.615
383.05
376.818
371.988
367.847
364.126
360.759
357.695
354.857
352.193
349.676
347.381
345.196
343.136
341.195
339.362
337.629
335.989
384.059
379.783
375.808
371.624
367.84
364.313
361.042
357.995
355.157
352.49
349.985
347.65
345.45
343.377
341.426
339.588
337.852
336.21
382.779
379.58
375.063
371.122
367.465
364.091
360.939
357.981
355.199
352.58
350.117
347.803
345.617
343.553
341.603
339.762
338.022
336.375
382.888
378.198
374.375
370.891
367.492
364.213
361.089
358.133
355.341
352.708
350.232
347.888
345.7
343.64
341.697
339.862
338.125
336.481
376.129
376.661
373.69
370.332
367.098
363.985
360.979
358.099
355.361
352.777
350.327
348.024
345.841
343.783
341.836
339.99
338.239
336.582
376.254
376.171
373.522
370.309
367.13
364.045
361.043
358.149
355.39
352.771
350.307
347.994
345.818
343.766
341.83
339.997
338.26
336.609
379.373
376.15
372.999
369.965
366.964
363.959
360.997
358.144
355.437
352.866
350.43
348.125
345.946
343.889
341.942
340.1
338.352
336.699
382.228
376.631
373.22
370.038
366.973
363.962
361
358.128
355.392
352.8
350.35
348.044
345.872
343.822
341.89
340.052
338.307
336.592
382.485
375.751
372.578
369.853
366.939
363.969
361.052
358.22
355.51
352.934
350.492
348.189
346.014
343.966
342.027
340.208
338.486
336.918
298.082
298.071
298.047
298.009
297.957
297.889
297.805
297.705
297.588
297.453
297.302
297.135
296.955
296.761
296.554
296.335
296.103
295.858
295.601
295.329
295.04
294.734
294.406
294.059
293.696
293.319
292.926
292.514
292.088
291.648
291.192
290.717
290.22
289.699
289.169
288.635
288.111
287.582
287.023
286.435
285.828
285.202
284.553
283.887
283.207
282.498
281.751
280.964
280.141
279.29
278.425
277.56
276.701
275.853
275.011
274.172
273.335
272.502
271.668
270.83
270.007
269.202
268.404
267.629
266.867
266.105
265.327
264.516
263.635
262.739
261.798
260.901
259.803
258.254
256.808
255.734
255.096
254.07
252.601
251.03
249.562
247.931
245.969
243.835
241.897
240.692
240.121
240.016
241.064
239.96
235.491
229.246
223.238
217.831
213.318
209.855
207.394
205.918
205.209
204.921
204.683
204.338
203.923
203.509
203.086
202.607
202.07
201.481
200.844
200.173
199.502
198.881
198.385
198.11
198.168
198.664
199.675
201.228
203.266
205.702
208.41
211.242
214.043
216.667
218.983
220.886
222.298
223.227
223.645
223.575
223.041
222.087
220.781
219.148
217.238
215.1
212.789
210.372
207.92
205.476
203.06
200.666
198.279
195.876
193.429
190.944
188.449
185.977
183.579
181.301
179.195
177.264
175.499
173.943
172.459
170.782
168.847
167.08
165.528
163.876
162.098
160.327
158.635
156.902
155.137
153.333
151.432
149.41
147.349
145.357
143.528
141.841
140.203
138.539
136.822
135.051
133.255
131.479
129.738
128.182
298.131
298.12
298.095
298.056
298.003
297.934
297.847
297.743
297.621
297.481
297.326
297.157
296.975
296.781
296.575
296.358
296.129
295.887
295.634
295.365
295.079
294.774
294.447
294.094
293.722
293.338
292.946
292.544
292.127
291.69
291.225
290.73
290.214
289.686
289.146
288.599
288.079
287.563
287.013
286.432
285.829
285.209
284.572
283.923
283.253
282.531
281.744
280.907
280.04
279.159
278.282
277.416
276.564
275.723
274.89
274.06
273.233
272.411
271.59
270.758
269.92
269.078
268.261
267.515
266.798
266.042
265.243
264.448
263.617
262.744
261.789
260.867
259.708
258.056
256.572
255.343
254.662
253.227
251.907
250.434
248.727
247.327
245.398
243.321
241.643
240.54
239.98
239.689
238.795
236.634
232.063
226.388
220.941
215.967
211.792
208.509
206.189
204.849
204.386
204.376
204.393
204.179
203.803
203.39
202.989
202.526
201.981
201.372
200.708
199.996
199.272
198.587
198.015
197.659
197.636
198.058
199.021
200.564
202.574
204.995
207.693
210.517
213.308
215.921
218.233
220.148
221.604
222.574
223.064
223.08
222.642
221.771
220.554
218.993
217.135
215.034
212.725
210.303
207.865
205.465
203.109
200.787
198.432
196.012
193.53
190.993
188.469
185.93
183.459
181.13
179.015
177.11
175.378
173.884
172.49
170.883
168.863
166.94
165.359
163.784
162.069
160.306
158.598
156.85
155.088
153.291
151.402
149.39
147.332
145.338
143.517
141.842
140.209
138.546
136.82
135.047
133.246
131.442
129.659
127.916
298.234
298.221
298.194
298.152
298.095
298.021
297.93
297.82
297.69
297.546
297.388
297.218
297.039
296.849
296.648
296.435
296.207
295.964
295.712
295.452
295.169
294.861
294.531
294.178
293.803
293.414
293.015
292.605
292.176
291.718
291.238
290.75
290.263
289.758
289.225
288.683
288.161
287.607
287.013
286.439
285.891
285.346
284.777
284.138
283.409
282.586
281.712
280.827
279.94
279.056
278.178
277.313
276.462
275.62
274.789
273.97
273.164
272.369
271.569
270.754
269.929
269.101
268.283
267.502
266.749
265.974
265.199
264.427
263.627
262.772
261.828
260.724
259.277
257.857
256.73
255.812
254.653
253.147
251.184
249.96
249.014
247.253
245.266
243.65
241.477
239.891
238.626
237.134
234.779
231.314
226.941
222.234
217.622
213.36
209.732
206.841
204.809
203.57
203.282
203.604
203.949
203.901
203.522
203.118
202.745
202.304
201.722
201.045
200.346
199.568
198.762
197.981
197.293
196.808
196.658
196.967
197.86
199.325
201.386
203.879
206.645
209.516
212.346
215.002
217.357
219.312
220.795
221.757
222.209
222.178
221.727
220.946
219.824
218.43
216.744
214.782
212.532
210.073
207.585
205.141
202.808
200.556
198.353
196.122
193.866
191.361
188.799
186.127
183.453
180.947
178.734
176.835
175.119
173.636
172.418
170.999
168.993
166.857
165.126
163.587
161.934
160.208
158.487
156.749
154.994
153.198
151.31
149.306
147.259
145.272
143.447
141.809
140.205
138.557
136.826
135.026
133.19
131.353
129.522
127.684
298.391
298.377
298.347
298.301
298.241
298.166
298.076
297.963
297.829
297.685
297.53
297.366
297.191
296.999
296.793
296.578
296.352
296.114
295.859
295.586
295.299
294.992
294.661
294.303
293.926
293.532
293.124
292.704
292.264
291.804
291.332
290.86
290.38
289.871
289.335
288.803
288.294
287.714
287.092
286.54
286.04
285.54
284.957
284.292
283.513
282.633
281.735
280.832
279.921
279.01
278.113
277.232
276.371
275.533
274.716
273.922
273.144
272.352
271.523
270.69
269.864
269.025
268.224
267.497
266.783
266.044
265.242
264.385
263.515
262.625
261.606
260.435
258.744
257.448
256.785
255.932
254.714
253.197
251.85
250.764
249.159
247.5
245.643
243.132
241.01
238.924
236.637
233.845
230.568
226.828
222.809
218.745
214.793
211.124
207.928
205.363
203.577
202.61
202.525
203.127
203.851
204.174
204.011
203.68
203.371
203
202.424
201.718
200.913
199.995
199.019
198.04
197.131
196.418
196.052
196.249
197.055
198.511
200.572
203.09
205.888
208.8
211.664
214.337
216.7
218.664
220.149
221.094
221.568
221.54
221.05
220.159
218.966
217.541
215.92
214.139
212.134
209.867
207.368
204.828
202.39
200.082
197.831
195.616
193.375
191.2
188.924
186.427
183.771
181.043
178.559
176.527
174.703
173.096
171.969
170.879
169.193
166.961
165.02
163.428
161.772
160.071
158.361
156.633
154.885
153.096
151.212
149.224
147.208
145.254
143.48
141.816
140.214
138.568
136.85
135.065
133.211
131.326
129.439
127.512
298.61
298.595
298.562
298.517
298.462
298.39
298.293
298.176
298.05
297.913
297.757
297.582
297.397
297.204
297.001
296.79
296.568
296.334
296.085
295.822
295.54
295.228
294.878
294.495
294.09
293.678
293.263
292.838
292.398
291.941
291.473
290.999
290.514
290.012
289.497
288.979
288.461
287.867
287.261
286.753
286.243
285.674
285.074
284.366
283.514
282.64
281.784
280.877
279.918
278.944
278.003
277.114
276.278
275.485
274.715
273.973
273.256
272.506
271.694
270.855
270.004
269.112
268.218
267.379
266.623
265.98
265.247
264.386
263.538
262.621
261.628
260.295
258.836
257.689
257.151
256.319
254.959
253.372
252.059
250.909
249.649
247.973
245.681
243.001
240.423
237.59
234.271
230.684
227.04
223.296
219.507
215.796
212.223
208.9
206.02
203.759
202.139
201.184
200.991
201.65
202.751
203.64
203.94
203.832
203.616
203.377
202.911
202.206
201.359
200.357
199.231
198.052
196.911
195.953
195.389
195.386
196.088
197.56
199.723
202.386
205.337
208.382
211.343
214.078
216.477
218.453
219.95
220.926
221.343
221.228
220.629
219.588
218.328
216.791
215.03
213.158
211.196
209.129
206.9
204.513
202.099
199.782
197.567
195.37
193.142
190.926
188.601
186.318
183.821
181.088
178.385
176.112
174.117
172.285
171.029
170.26
169.129
167.095
164.996
163.295
161.623
159.927
158.225
156.498
154.759
152.992
151.122
149.159
147.183
145.25
143.443
141.801
140.24
138.618
136.888
135.073
133.212
131.303
129.379
127.4
298.894
298.878
298.845
298.8
298.743
298.67
298.576
298.47
298.351
298.211
298.052
297.873
297.682
297.482
297.274
297.06
296.84
296.608
296.358
296.087
295.792
295.468
295.108
294.711
294.286
293.864
293.452
293.026
292.583
292.125
291.658
291.183
290.692
290.192
289.685
289.173
288.653
288.073
287.505
286.974
286.355
285.767
285.071
284.249
283.392
282.601
281.752
280.714
279.618
278.565
277.611
276.765
276.011
275.314
274.634
273.955
273.294
272.611
271.871
271.088
270.237
269.256
268.199
267.209
266.389
265.816
265.185
264.379
263.517
262.665
261.819
260.725
259.567
258.642
257.795
256.495
254.705
253.218
252.16
250.959
249.666
247.914
245.455
242.66
239.59
235.961
231.977
228.066
224.252
220.409
216.633
213.062
209.725
206.687
204.175
202.285
200.954
200.101
199.774
200.148