/*--------------------------------*- C++ -*----------------------------------*\
| =========                 |                                                 |
| \\      /  F ield         | OpenFOAM: The Open Source CFD Toolbox           |
|  \\    /   O peration     | Version:  4.x                                   |
|   \\  /    A nd           | Web:      www.OpenFOAM.org                      |
|    \\/     M anipulation  |                                                 |
\*---------------------------------------------------------------------------*/
FoamFile
{
    version     2.0;
    format      ascii;
    class       volVectorField;
    location    "0.1";
    object      U;
}
// * * * * * * * * * * * * * * * * * * * * * * * * * * * * * * * * * * * * * //

dimensions      [0 1 -1 0 0 0 0];

internalField   nonuniform List<vector> 
61125
(
(9.82056 0.0946223 0.044585)
(9.58037 0.125441 -0.0288728)
(9.46506 0.0563001 -0.0127189)
(9.33192 0.0238061 0.0117889)
(9.17502 0.00996421 0.0297212)
(9.02038 0.00304577 0.0350074)
(8.87877 0.0011313 0.0268607)
(8.75139 8.81917e-05 0.00979188)
(8.63212 -0.00138902 -0.00863743)
(8.52431 -0.00343667 -0.0210499)
(8.42098 -0.00511365 -0.0232366)
(8.33961 -0.00648388 -0.0144581)
(8.25297 -0.00728775 0.00166886)
(8.20917 -0.00740046 0.021295)
(8.11157 -0.00907116 0.0370312)
(8.12558 -0.00764777 0.0500576)
(7.91232 0.00786339 0.04949)
(8.03546 0.0705023 0.0547149)
(9.99976 0.11868 0.0596396)
(10.024 0.022693 -0.0215383)
(9.98571 0.00606103 -0.017307)
(9.8705 0.0303916 0.00815762)
(9.72038 0.0476536 0.0293747)
(9.57133 0.0555931 0.0366819)
(9.43573 0.0591233 0.0293009)
(9.31629 0.0605701 0.0118507)
(9.2067 0.0593789 -0.00797207)
(9.10942 0.0565129 -0.0222948)
(9.01729 0.0516654 -0.0261471)
(8.94666 0.0487219 -0.0181154)
(8.87273 0.0431551 -0.00146816)
(8.83635 0.0445637 0.01961)
(8.76327 0.0384178 0.0378548)
(8.76394 0.0514873 0.0522103)
(8.6728 0.0591912 0.0562399)
(8.76948 0.136553 0.0557858)
(10.1315 0.0677815 0.0374885)
(10.2013 0.0869031 -0.0378902)
(10.2646 0.0774111 -0.0377402)
(10.2273 0.0826092 -0.00182646)
(10.1338 0.0903002 0.0287121)
(10.0181 0.0922694 0.0395125)
(9.90261 0.0919251 0.03291)
(9.79949 0.089897 0.0151392)
(9.71032 0.0834341 -0.0062985)
(9.63652 0.074239 -0.0235748)
(9.57327 0.062683 -0.0307101)
(9.52456 0.0551033 -0.0250071)
(9.48093 0.0453834 -0.00848338)
(9.45109 0.0450702 0.0141428)
(9.41982 0.0382908 0.0362458)
(9.40061 0.0506614 0.0534025)
(9.37962 0.0528953 0.0627892)
(9.34792 0.0769845 0.0633429)
(10.136 0.169395 -0.0572704)
(10.1115 0.0507784 -0.046554)
(10.0831 0.0301984 0.0275729)
(10.069 0.0491337 0.0832889)
(10.0656 0.0742016 0.0931251)
(10.0509 0.0952154 0.0743403)
(10.0212 0.109223 0.0479257)
(9.98841 0.114705 0.0221937)
(9.96375 0.110102 -0.00136851)
(9.95043 0.0985164 -0.0207887)
(9.9453 0.0833316 -0.0320064)
(9.94298 0.0713715 -0.0311898)
(9.94058 0.0605513 -0.01802)
(9.93476 0.0560719 0.00406673)
(9.92951 0.0522053 0.0289205)
(9.92168 0.0559375 0.0504892)
(9.92237 0.063237 0.0651601)
(9.93081 0.0804453 0.0703056)
(10.3096 -0.0276737 0.0262626)
(10.3779 0.0722845 0.0205649)
(10.2695 0.0844222 0.0304885)
(10.1332 0.0727218 0.0364225)
(10.0546 0.0806795 0.0392446)
(10.0288 0.0987546 0.0445339)
(10.0341 0.110293 0.0514213)
(10.0607 0.108016 0.0543589)
(10.1013 0.0938706 0.0480592)
(10.1452 0.0769008 0.0307632)
(10.1831 0.0634543 0.00759343)
(10.2086 0.0574705 -0.0112395)
(10.2216 0.0544844 -0.0170809)
(10.2231 0.0548119 -0.0074001)
(10.2191 0.0531761 0.0135811)
(10.2118 0.0550255 0.0379529)
(10.209 0.0564982 0.0589616)
(10.2078 0.0626131 0.0704512)
(10.0773 -0.0701286 0.00196687)
(10.0362 0.0787557 -0.0659356)
(10.1029 0.126975 -0.0359728)
(10.0574 0.108126 0.0323062)
(9.99302 0.081373 0.0634718)
(9.98768 0.0765729 0.0541324)
(10.0433 0.0865901 0.0375751)
(10.1238 0.0947949 0.0306039)
(10.1957 0.0938319 0.0248568)
(10.2444 0.0865545 0.00742039)
(10.2728 0.0776592 -0.0219612)
(10.2895 0.0700784 -0.0501657)
(10.2998 0.0632035 -0.0625521)
(10.3042 0.0569511 -0.0522503)
(10.2991 0.0511704 -0.0238676)
(10.2856 0.0467339 0.0114769)
(10.2632 0.0447427 0.0422703)
(10.2416 0.0434247 0.0601069)
(9.95655 0.148289 -0.00135096)
(9.95497 0.0997415 -0.00625381)
(9.9715 0.10028 0.0370786)
(10.0278 0.100774 0.0467536)
(10.0838 0.0789443 0.0386882)
(10.1058 0.0518629 0.0280755)
(10.1111 0.0352467 0.0179948)
(10.1277 0.031789 0.00798539)
(10.1615 0.037014 -0.000176051)
(10.2008 0.04627 -0.00427025)
(10.2318 0.0550425 -0.00270369)
(10.2486 0.061531 0.00487346)
(10.2515 0.0649958 0.0161521)
(10.2446 0.0671912 0.0277611)
(10.2297 0.0689141 0.0351113)
(10.2096 0.0705434 0.0370889)
(10.1849 0.0708075 0.0321863)
(10.1612 0.0693308 0.0239827)
(9.64971 0.0807364 -0.0241436)
(9.44717 0.125314 -0.052005)
(9.33051 0.0549457 -0.0470837)
(9.22803 0.0244295 -0.0188655)
(9.1208 0.0142067 0.00671133)
(9.00398 0.00787016 0.0185266)
(8.88088 0.00387277 0.0189972)
(8.75943 0.000892735 0.0149544)
(8.64056 -0.00155232 0.0106611)
(8.5317 -0.00352363 0.00631509)
(8.42558 -0.00460142 -0.000157079)
(8.33681 -0.0049604 -0.00860498)
(8.23635 -0.0047043 -0.0182265)
(8.17365 -0.00395477 -0.0236781)
(8.05544 -0.00524538 -0.0267166)
(8.05234 -0.00372731 -0.0189576)
(7.82675 0.0106536 -0.0181224)
(7.9485 0.0724438 0.00635683)
(10.0675 0.0209916 -0.138054)
(9.87776 0.00431073 -0.0653865)
(9.80576 -0.00106857 -0.0346296)
(9.72411 0.0238871 -0.00748715)
(9.63472 0.0460926 0.0140066)
(9.53928 0.0585365 0.0234396)
(9.43534 0.0626835 0.0231502)
(9.32873 0.0619083 0.0187708)
(9.2216 0.0583912 0.0139534)
(9.12353 0.0550745 0.00900393)
(9.02914 0.0518725 0.0019853)
(8.95242 0.0527646 -0.00712808)
(8.86591 0.0520157 -0.0176347)
(8.81067 0.0574324 -0.0245496)
(8.71521 0.0528294 -0.0282312)
(8.6952 0.0649396 -0.0230964)
(8.58793 0.0698222 -0.0180572)
(8.6784 0.1444 -0.00522843)
(9.96547 0.121042 -0.0176448)
(10.0757 0.116215 0.0106165)
(10.0747 0.0731837 0.0220609)
(10.0217 0.067744 0.0336259)
(9.98023 0.0833888 0.0399648)
(9.94299 0.0950004 0.0400124)
(9.89137 0.0980286 0.0357163)
(9.82506 0.0940615 0.0292658)
(9.75037 0.0845092 0.0222029)
(9.67797 0.0743567 0.0147793)
(9.60874 0.0651812 0.00584441)
(9.54745 0.0641304 -0.00472922)
(9.48391 0.0632441 -0.0160793)
(9.42812 0.0708333 -0.0248051)
(9.36831 0.0682092 -0.0290131)
(9.32395 0.0799455 -0.0268426)
(9.28508 0.0774224 -0.0200442)
(9.24646 0.0946124 -0.00933424)
(10.094 -0.0035178 0.10166)
(9.97657 0.0273989 0.0978433)
(9.89224 0.0428056 0.0899233)
(9.90341 0.0576549 0.0858711)
(9.98656 0.0765804 0.0809942)
(10.0673 0.0907919 0.0717225)
(10.1075 0.0994005 0.0591055)
(10.1113 0.101452 0.0440895)
(10.0952 0.0959257 0.0283589)
(10.0703 0.0874423 0.0135554)
(10.0404 0.0799681 0.000171963)
(10.0051 0.0806479 -0.0118713)
(9.96448 0.0847591 -0.0222315)
(9.91864 0.0929719 -0.029307)
(9.87616 0.0952532 -0.0310963)
(9.83812 0.0979754 -0.0272685)
(9.81903 0.0965977 -0.0182244)
(9.82101 0.100577 -0.00720785)
(10.067 0.0641761 0.052925)
(9.98516 0.12802 0.0271283)
(9.94811 0.0761128 -0.0177518)
(9.97809 0.0383667 -0.016856)
(10.0704 0.0527194 0.00198026)
(10.1573 0.0966537 0.0108865)
(10.2154 0.1347 0.00836673)
(10.2612 0.148669 0.00095375)
(10.3012 0.138482 -0.0067286)
(10.3226 0.117208 -0.0136959)
(10.3137 0.0984614 -0.0207197)
(10.2747 0.0932991 -0.0276097)
(10.2182 0.0989974 -0.0321527)
(10.1577 0.111266 -0.0314991)
(10.1099 0.118485 -0.0241588)
(10.0793 0.121683 -0.0108585)
(10.0744 0.116003 0.00570339)
(10.0819 0.108259 0.0227454)
(9.74868 0.072055 -0.0108809)
(9.88983 0.0961333 -0.103951)
(9.86374 0.0744266 -0.0482544)
(9.77866 0.0442647 0.0354986)
(9.77133 0.0334153 0.0771295)
(9.84616 0.0421535 0.077474)
(9.96771 0.0527606 0.0593789)
(10.1072 0.0568551 0.0401207)
(10.2279 0.0597665 0.0259963)
(10.2926 0.0693315 0.0159624)
(10.2903 0.086533 0.00744621)
(10.2419 0.106778 2.78435e-05)
(10.1823 0.122188 -0.00606778)
(10.1379 0.12801 -0.00940643)
(10.1213 0.122557 -0.0110147)
(10.1295 0.108519 -0.0110444)
(10.1569 0.0905757 -0.0126077)
(10.1916 0.071982 -0.0144895)
(9.88196 -0.0695408 0.071222)
(9.92565 0.035643 -0.0518015)
(10.035 0.0880976 -0.0541738)
(10.1014 0.0666119 -0.0327568)
(10.1163 0.0387097 -0.0274383)
(10.0819 0.0337689 -0.038829)
(10.0243 0.0458868 -0.0505325)
(9.97889 0.0632 -0.0487122)
(9.96154 0.0811614 -0.032883)
(9.97114 0.0983463 -0.0137768)
(10.0041 0.111876 -0.00446585)
(10.0545 0.119306 -0.0109056)
(10.1144 0.119645 -0.031223)
(10.1717 0.114027 -0.058049)
(10.219 0.103437 -0.0830399)
(10.2509 0.0905611 -0.0995641)
(10.273 0.0757521 -0.105658)
(10.285 0.062642 -0.100552)
(9.88933 0.0653231 -0.0635157)
(9.66177 0.126432 -0.0348397)
(9.43752 0.0696047 -0.0168121)
(9.20057 0.0350587 -0.0212006)
(9.0038 0.0142009 -0.0404416)
(8.85802 0.00342269 -0.0539869)
(8.74971 -0.000900701 -0.0521642)
(8.66541 -0.00277989 -0.0379552)
(8.58889 -0.00381447 -0.0201573)
(8.5161 -0.00480065 -0.00607056)
(8.43516 -0.00549546 0.000913589)
(8.36088 -0.00605936 0.00235608)
(8.26567 -0.00617323 0.000281605)
(8.20078 -0.00570391 -0.000616336)
(8.07286 -0.00682526 -0.00236053)
(8.05675 -0.00463188 0.0022987)
(7.81144 0.0104585 -0.00152424)
(7.9204 0.0724952 0.013864)
(10.1016 0.0263222 0.0347873)
(10.0761 -0.00466221 -0.0299356)
(9.90806 0.0178104 -0.0270069)
(9.69698 0.0447529 -0.0251582)
(9.51119 0.0528831 -0.0406172)
(9.37477 0.0506804 -0.0563805)
(9.27898 0.0467445 -0.0583234)
(9.21084 0.0448597 -0.045963)
(9.15243 0.0445056 -0.0273248)
(9.09761 0.0455424 -0.0106516)
(9.03364 0.0456843 -0.000738572)
(8.97442 0.048126 0.00287952)
(8.89501 0.0477803 0.00196772)
(8.83919 0.0541014 0.00102126)
(8.73573 0.0511801 -0.000520506)
(8.70339 0.066062 0.0021615)
(8.57737 0.0737097 0.00196995)
(8.65075 0.15186 0.00726587)
(10.1461 -0.0117247 0.151232)
(10.114 0.0877097 0.0311255)
(10.0709 0.119791 -0.0110137)
(9.96859 0.118877 -0.0161094)
(9.86015 0.101962 -0.0326612)
(9.77654 0.0808741 -0.0574088)
(9.72175 0.0652952 -0.0708204)
(9.69003 0.0572562 -0.0653313)
(9.66723 0.0534501 -0.0465862)
(9.64377 0.0526164 -0.0244593)
(9.60998 0.0511716 -0.00682365)
(9.56976 0.0539617 0.00347479)
(9.51598 0.0540253 0.0070022)
(9.46139 0.062698 0.00701104)
(9.39452 0.062685 0.00560966)
(9.33639 0.0791097 0.00527539)
(9.27832 0.082163 0.00537955)
(9.22101 0.102561 0.00653681)
(9.98611 0.0633352 -0.0453828)
(9.96876 0.0542392 -0.0213544)
(10.0098 0.07693 0.0215624)
(10.072 0.0865663 0.0366825)
(10.0866 0.0859556 -0.000431598)
(10.0592 0.0771052 -0.0554312)
(10.0309 0.0675406 -0.0921532)
(10.024 0.0627499 -0.098365)
(10.0342 0.0617558 -0.0801329)
(10.046 0.0630429 -0.0497501)
(10.0467 0.0634841 -0.018901)
(10.0298 0.0664056 0.00462543)
(9.99604 0.0693126 0.0181047)
(9.9481 0.077939 0.022699)
(9.89516 0.0846763 0.0215681)
(9.84053 0.0957735 0.0179282)
(9.79755 0.104476 0.0137675)
(9.77274 0.115521 0.010135)
(10.283 -0.00744881 0.0154464)
(10.3965 0.0655274 0.0573682)
(10.263 0.110824 0.0128084)
(10.104 0.119603 -0.0329682)
(10.057 0.122645 -0.0505723)
(10.0731 0.116497 -0.0501169)
(10.0988 0.0980278 -0.0440582)
(10.1235 0.0763164 -0.0335826)
(10.1508 0.0606734 -0.0156453)
(10.1757 0.0560955 0.00894135)
(10.1878 0.0608038 0.0343075)
(10.1786 0.0733662 0.0530329)
(10.1495 0.0871217 0.0610844)
(10.1059 0.101768 0.0588481)
(10.0614 0.110703 0.0503944)
(10.0216 0.118078 0.0394964)
(9.9992 0.118094 0.0301163)
(9.98696 0.117578 0.0228006)
(10.0958 -0.0455447 0.146099)
(9.92207 0.0882415 0.0503112)
(9.82907 0.150613 0.0011574)
(9.82306 0.122245 0.0239201)
(9.87648 0.0751087 0.0566992)
(9.96023 0.0536957 0.0661983)
(10.043 0.0544653 0.0540074)
(10.096 0.0601876 0.0373172)
(10.1077 0.0611273 0.0298667)
(10.0888 0.0587293 0.034694)
(10.0616 0.0577535 0.0465501)
(10.0447 0.0624654 0.0586471)
(10.0463 0.0721389 0.0668236)
(10.0647 0.0851541 0.0708864)
(10.0966 0.098079 0.0730722)
(10.1345 0.108367 0.0753385)
(10.1768 0.114934 0.0791751)
(10.2167 0.113839 0.0837563)
(9.95059 -0.00499647 0.0907417)
(10.0783 0.12983 0.105265)
(10.0733 0.117218 0.0309698)
(10.0595 0.103872 -0.0783666)
(10.0516 0.0963636 -0.148142)
(10.049 0.0846411 -0.153611)
(10.0585 0.0733807 -0.119489)
(10.0797 0.0719843 -0.0832446)
(10.1026 0.0804592 -0.0650569)
(10.1153 0.0908773 -0.0618477)
(10.1123 0.0951681 -0.0599882)
(10.0968 0.0913408 -0.0499013)
(10.0777 0.0811284 -0.0306839)
(10.0637 0.0680441 -0.00790623)
(10.0621 0.0542338 0.011811)
(10.0748 0.0417125 0.0254068)
(10.1018 0.0298893 0.0306647)
(10.1382 0.0204213 0.0307029)
(9.72721 0.0278877 -0.0742646)
(9.56385 0.131637 0.0686443)
(9.35414 0.0736556 0.0718146)
(9.19421 0.0289679 0.0638409)
(9.09931 0.00710985 0.0535527)
(9.01784 -0.00220256 0.0280043)
(8.91842 -0.00541122 -0.00342634)
(8.80546 -0.00554249 -0.0234929)
(8.68745 -0.00441509 -0.0254727)
(8.57695 -0.00344326 -0.0146547)
(8.46897 -0.00290545 -0.0011187)
(8.37941 -0.00315116 0.00802429)
(8.27979 -0.00384207 0.00965814)
(8.21979 -0.00426674 0.00648743)
(8.10354 -0.00665415 -0.000714372)
(8.10439 -0.00526475 -0.00468127)
(7.87354 0.00917967 -0.0118868)
(8.00351 0.0725759 -0.00560692)
(10.0982 -0.0118444 0.0453295)
(9.98114 0.00500123 0.0788335)
(9.83879 0.0220384 0.0728937)
(9.70084 0.029618 0.0743875)
(9.61416 0.0299162 0.0667437)
(9.54422 0.0324702 0.0374722)
(9.45879 0.0382219 -0.000122899)
(9.35977 0.0451532 -0.0252534)
(9.25497 0.0508733 -0.0292991)
(9.15713 0.055232 -0.0176556)
(9.06199 0.0564222 -0.00172662)
(8.98479 0.0578375 0.00990945)
(8.89924 0.0546134 0.0133038)
(8.84751 0.0568139 0.0106257)
(8.75609 0.0493846 0.00346909)
(8.74197 0.0610816 -0.00238777)
(8.63602 0.0661706 -0.00855583)
(8.73051 0.143561 -0.00883974)
(9.87991 0.0215304 -0.0415352)
(10.0164 0.119588 0.00496724)
(10.0726 0.113121 0.0630028)
(10.0504 0.0799916 0.0992952)
(10.0182 0.0562072 0.0946822)
(9.98138 0.0456073 0.0548235)
(9.92345 0.0463316 0.0042476)
(9.84513 0.0542447 -0.0300759)
(9.75622 0.0631299 -0.0370767)
(9.67111 0.0706552 -0.0230371)
(9.5937 0.072901 -0.00183603)
(9.53124 0.0746341 0.0152067)
(9.47388 0.0693118 0.0228345)
(9.43046 0.0698239 0.02191)
(9.38574 0.0605479 0.0152234)
(9.35605 0.0695329 0.00707966)
(9.32857 0.066909 -0.00069916)
(9.29717 0.0852336 -0.00604414)
(10.2195 -0.0226528 0.0124278)
(10.1339 0.0367095 0.0346752)
(10.1364 0.0481524 0.0290333)
(10.1259 0.0485955 0.0371645)
(10.1343 0.0443462 0.0441069)
(10.1539 0.0414649 0.0240668)
(10.1513 0.0475634 -0.0151826)
(10.1143 0.0624543 -0.0453298)
(10.0538 0.0778862 -0.0491673)
(9.98973 0.0889543 -0.0297664)
(9.93615 0.0925985 -0.00101508)
(9.89686 0.0933079 0.0241015)
(9.87017 0.0887832 0.0389816)
(9.85042 0.0859746 0.0429126)
(9.83928 0.0798038 0.0383214)
(9.83126 0.079397 0.0289818)
(9.83633 0.0803527 0.0175918)
(9.85369 0.0897347 0.00722675)
(10.18 0.0491978 -0.166473)
(10.1005 0.111956 -0.0393356)
(10.1045 0.109783 0.0587731)
(10.1311 0.0796415 0.0806487)
(10.163 0.0445947 0.0551396)
(10.1732 0.0272239 0.0100255)
(10.1518 0.0361673 -0.0365975)
(10.1106 0.0618773 -0.0670904)
(10.0664 0.0874692 -0.0706635)
(10.0314 0.104195 -0.0486219)
(10.0113 0.110242 -0.0117779)
(10.0041 0.110989 0.0264323)
(10.0066 0.106237 0.0557199)
(10.0141 0.100616 0.0712385)
(10.0281 0.0907888 0.0728555)
(10.0457 0.0834226 0.0631742)
(10.0728 0.0745373 0.0465987)
(10.1003 0.0700086 0.0260371)
(10.0172 0.0186018 0.0569244)
(10.1291 0.114941 0.0614465)
(10.1831 0.0628916 0.0667938)
(10.1919 0.0316762 0.0413012)
(10.2039 0.028463 -0.0106948)
(10.208 0.0385686 -0.053554)
(10.1853 0.0584483 -0.0725029)
(10.1449 0.0799719 -0.0726665)
(10.1077 0.0935188 -0.063196)
(10.0884 0.0974878 -0.0489962)
(10.091 0.0956313 -0.030679)
(10.1115 0.0927876 -0.00801912)
(10.1427 0.0895341 0.0179013)
(10.1768 0.0864026 0.043478)
(10.2094 0.0826013 0.0661721)
(10.2366 0.0789169 0.0823898)
(10.2601 0.0751744 0.0929271)
(10.2792 0.0678759 0.0955904)
(9.96251 0.0829028 0.0611514)
(10.2706 0.0363488 0.100953)
(10.3795 0.095161 0.0631658)
(10.3418 0.0987612 0.00935934)
(10.2777 0.0733035 -0.0290277)
(10.2196 0.0644596 -0.0472313)
(10.169 0.0799703 -0.0458814)
(10.1273 0.100455 -0.0301731)
(10.0928 0.108593 -0.0122726)
(10.0631 0.103602 -0.00137321)
(10.0398 0.0934357 0.00201905)
(10.0273 0.0855616 0.00208289)
(10.0297 0.0823371 0.00307484)
(10.0479 0.08307 0.00687092)
(10.0822 0.0848641 0.0135366)
(10.1285 0.0851918 0.0230987)
(10.1841 0.0814982 0.0329504)
(10.243 0.0735754 0.0448739)
(9.78022 0.0267504 -0.0439299)
(9.55128 0.134501 -0.00915439)
(9.35899 0.0693139 -0.0265483)
(9.18698 0.030768 -0.0509202)
(9.05081 0.0117538 -0.0429976)
(8.93342 0.00154308 -0.00745401)
(8.82518 -0.00260326 0.0291106)
(8.72568 -0.00411446 0.0436761)
(8.63081 -0.00451657 0.0332129)
(8.54679 -0.00484725 0.0102413)
(8.46742 -0.00537484 -0.0114363)
(8.40678 -0.00644721 -0.0245075)
(8.33354 -0.00737939 -0.0287573)
(8.29246 -0.00787601 -0.0264429)
(8.18694 -0.00974338 -0.0216989)
(8.18415 -0.00790005 -0.0145466)
(7.94891 0.00705964 -0.00978281)
(8.05508 0.0704923 -0.00135714)
(10.0763 0.136749 0.0651466)
(10.0131 0.0346818 0.0398925)
(9.85054 0.0281247 -0.011282)
(9.69158 0.0424369 -0.0476483)
(9.56357 0.0472959 -0.0465266)
(9.45417 0.0466499 -0.0117554)
(9.35646 0.044345 0.028262)
(9.27136 0.043874 0.0470545)
(9.19303 0.0446334 0.0389042)
(9.12508 0.0458473 0.015625)
(9.06047 0.0446308 -0.00811425)
(9.01293 0.0442611 -0.0237879)
(8.95458 0.0407235 -0.030287)
(8.92336 0.0443547 -0.0296025)
(8.84438 0.0404569 -0.0254647)
(8.82993 0.0559939 -0.0187635)
(8.71678 0.0649534 -0.0124328)
(8.79289 0.14321 -0.00539012)
(10.0931 0.026125 -0.0179589)
(10.07 0.141285 0.0194075)
(10.0238 0.132523 0.00951744)
(9.9831 0.107037 -0.0319343)
(9.92465 0.0901739 -0.0447292)
(9.85406 0.074925 -0.015941)
(9.78951 0.0621961 0.0261199)
(9.73849 0.0555567 0.0503733)
(9.69466 0.0536117 0.0470653)
(9.65638 0.054192 0.0258828)
(9.62051 0.051379 0.00136003)
(9.59223 0.0492137 -0.0172672)
(9.5618 0.0425057 -0.0276621)
(9.53661 0.0447475 -0.0311359)
(9.50006 0.0408151 -0.0300386)
(9.46665 0.0568732 -0.0256216)
(9.42496 0.0618539 -0.0193233)
(9.37079 0.0862728 -0.0116747)
(9.73578 0.0937208 0.11655)
(9.95292 0.122689 0.0730786)
(10.0955 0.100284 0.0310268)
(10.1018 0.0941062 -0.00852788)
(10.055 0.0919881 -0.0206361)
(10.0125 0.0765699 0.000363529)
(9.99378 0.0576942 0.0322469)
(9.99458 0.0494835 0.050855)
(10.0024 0.0520394 0.0487927)
(10.0092 0.0591105 0.0332432)
(10.0125 0.0621546 0.014493)
(10.0114 0.0619657 -0.00175071)
(10.0059 0.0572058 -0.0142299)
(9.99424 0.0566412 -0.0237598)
(9.97979 0.0567153 -0.0302291)
(9.95955 0.0653809 -0.0328939)
(9.94372 0.0765931 -0.0310343)
(9.93426 0.0944287 -0.0237244)
(10.1903 0.0116995 0.0186325)
(10.1401 0.0508124 0.0345475)
(10.099 0.0809381 0.00610343)
(10.0731 0.104361 -0.0416025)
(10.1 0.111286 -0.0523709)
(10.1555 0.0970691 -0.0317033)
(10.1977 0.0719969 -0.00240905)
(10.2053 0.0528083 0.021076)
(10.1844 0.0474055 0.0346125)
(10.1532 0.0530218 0.0392411)
(10.1246 0.060973 0.03619)
(10.1029 0.0680523 0.0251304)
(10.0898 0.0703346 0.00627282)
(10.0843 0.0721194 -0.0178199)
(10.0885 0.0714948 -0.0422256)
(10.0977 0.0753092 -0.0609281)
(10.1151 0.078576 -0.0709034)
(10.1292 0.0853034 -0.0687493)
(10.314 0.12823 -0.0175649)
(10.0303 0.155839 -0.00968773)
(9.91075 0.134588 -0.0303762)
(9.93392 0.103146 -0.0564299)
(9.97585 0.0559948 -0.0665685)
(10.0029 0.015524 -0.0506876)
(10.0338 0.00209814 -0.0145289)
(10.0757 0.0155258 0.0278208)
(10.1158 0.0414905 0.0648562)
(10.1432 0.0659582 0.0894135)
(10.1581 0.0803761 0.0971219)
(10.1653 0.0833625 0.0861828)
(10.1688 0.0767507 0.0595894)
(10.1702 0.0656048 0.023675)
(10.1712 0.055677 -0.0132248)
(10.1726 0.0501155 -0.0438696)
(10.1744 0.0514668 -0.0637283)
(10.1781 0.0544319 -0.070172)
(9.72018 0.0786061 0.00223317)
(9.89559 0.189176 -0.0132172)
(10.0724 0.131883 -0.0201934)
(10.214 0.0933386 -0.0395434)
(10.2787 0.0797712 -0.0401165)
(10.2671 0.0604294 -0.0147734)
(10.2191 0.0286939 0.00809619)
(10.1734 0.00210602 0.0098697)
(10.1476 -0.00350872 -0.00371829)
(10.1405 0.0137419 -0.0199838)
(10.1416 0.0434884 -0.0339216)
(10.1405 0.0732769 -0.0477053)
(10.1334 0.0939793 -0.0638949)
(10.1208 0.103476 -0.0812047)
(10.1068 0.103163 -0.094568)
(10.0956 0.0977816 -0.0996854)
(10.091 0.0905757 -0.0932733)
(10.0964 0.0867193 -0.0768016)
(9.82364 -0.00904975 0.012281)
(10.0012 0.0764883 0.0310652)
(10.0445 0.0991766 0.0397905)
(10.0685 0.0579697 0.0306634)
(10.1209 0.0386759 0.0411513)
(10.1931 0.0584789 0.0655886)
(10.2533 0.0819235 0.0794156)
(10.2744 0.0848115 0.0673616)
(10.2542 0.0707914 0.0338349)
(10.2119 0.0561829 -0.00419653)
(10.1708 0.0499672 -0.0300771)
(10.1438 0.0509645 -0.0360241)
(10.1321 0.0548817 -0.024532)
(10.1299 0.059785 -0.00474659)
(10.1316 0.0654212 0.0125372)
(10.1329 0.0716857 0.0197907)
(10.1346 0.078004 0.0139098)
(10.1351 0.0817592 -0.00274879)
(10.0664 -0.0683649 0.0537679)
(10.1126 0.061873 -0.0271077)
(10.2023 0.114237 -0.0344717)
(10.2175 0.0911695 -0.0156945)
(10.1688 0.0351619 -0.0021493)
(10.1199 -0.000692609 -0.000567527)
(10.0997 0.00117038 -0.00596707)
(10.0967 0.0280876 -0.0160574)
(10.0944 0.0577941 -0.0323835)
(10.0903 0.07605 -0.0544075)
(10.091 0.0802153 -0.0760527)
(10.1017 0.0755489 -0.0894025)
(10.1214 0.0689835 -0.0899896)
(10.1455 0.0661828 -0.0807354)
(10.169 0.068514 -0.067353)
(10.1878 0.0737908 -0.0569642)
(10.202 0.0791365 -0.04998)
(10.2093 0.0802805 -0.0481923)
(10.0202 -0.00967591 0.0306883)
(10.0311 -0.00728398 -0.042661)
(10.1042 0.034407 -0.0244288)
(10.2095 0.041709 0.0596735)
(10.2488 0.0514491 0.103619)
(10.2136 0.0802685 0.0727256)
(10.1522 0.109085 0.0030353)
(10.1085 0.118797 -0.0631248)
(10.0979 0.106014 -0.107033)
(10.1163 0.078983 -0.127737)
(10.1515 0.0479487 -0.12906)
(10.1906 0.0205964 -0.113703)
(10.2247 0.00180366 -0.0842866)
(10.2474 -0.00562409 -0.0452428)
(10.2577 -0.00143571 -0.00406051)
(10.2567 0.0116214 0.0317672)
(10.248 0.0290832 0.0570109)
(10.2382 0.0458854 0.068717)
(10.0132 -0.0641498 -0.189304)
(9.9675 0.0674316 -0.128411)
(9.95497 0.058264 -0.04276)
(9.98224 0.0197856 -0.0287042)
(10.0088 0.00738868 -0.0400565)
(10.0173 0.00925636 -0.0319758)
(10.0221 0.0193269 0.00222943)
(10.0406 0.0362635 0.0449188)
(10.075 0.0535477 0.0753097)
(10.1128 0.0620157 0.0820909)
(10.1372 0.0591705 0.0664597)
(10.1373 0.0501861 0.0372615)
(10.1159 0.0430622 0.00500168)
(10.0844 0.0434604 -0.0226049)
(10.0568 0.049306 -0.0424341)
(10.0432 0.0572067 -0.0540189)
(10.0476 0.0604764 -0.0600346)
(10.0705 0.0583761 -0.0608922)
(10.0793 0.0406899 0.0310964)
(10.1375 0.0193329 -0.0225108)
(10.1162 0.0272811 -0.0215127)
(10.0715 0.0166977 0.017484)
(10.0663 0.0170367 0.0491217)
(10.0854 0.0398823 0.0483836)
(10.0967 0.064129 0.0231344)
(10.0928 0.0749833 -0.00810249)
(10.0873 0.075763 -0.0310629)
(10.0924 0.0737371 -0.0393619)
(10.1081 0.0710364 -0.0332855)
(10.1293 0.0658359 -0.0168145)
(10.1511 0.0555697 0.00338322)
(10.1708 0.0403068 0.0204635)
(10.1875 0.0221733 0.0302834)
(10.2003 0.0041436 0.0312653)
(10.2119 -0.011304 0.0263559)
(10.2182 -0.0238731 0.0170435)
(10.2021 -0.061482 0.0305179)
(10.0717 0.0997762 -0.0409944)
(10.0825 0.121841 -0.0693002)
(10.062 0.0656899 -0.051355)
(10.0218 0.00574087 0.00158706)
(10.0168 -0.0145383 0.0416945)
(10.053 0.00377651 0.0408737)
(10.1024 0.033167 0.00891964)
(10.1394 0.0455344 -0.0274958)
(10.1587 0.0301447 -0.0492849)
(10.1693 -0.00341315 -0.0538562)
(10.1815 -0.0358939 -0.0478079)
(10.2 -0.0520969 -0.0384089)
(10.2225 -0.0476566 -0.0292673)
(10.2448 -0.0280867 -0.0208145)
(10.2635 -0.00319973 -0.0121657)
(10.2768 0.0184139 -0.00227859)
(10.2875 0.031492 0.00914989)
(10.0285 0.127053 -0.0910591)
(9.98877 0.0673729 -0.0858607)
(9.93893 -0.0388855 -0.0677186)
(9.92732 -0.0136188 -0.0149857)
(9.966 0.0218665 0.0192168)
(10.0137 0.0217835 0.023697)
(10.0534 0.0171123 0.0110866)
(10.0933 0.0306097 -0.0052458)
(10.1367 0.0572422 -0.0162561)
(10.1714 0.0812714 -0.0189504)
(10.1813 0.0923807 -0.0153286)
(10.1605 0.0886866 -0.00899845)
(10.118 0.0735223 -0.00215422)
(10.0713 0.0518841 0.00475353)
(10.0357 0.0271857 0.0113065)
(10.0203 0.00278657 0.0169271)
(10.0261 -0.0205381 0.0195947)
(10.0498 -0.0395819 0.0191415)
(10.1812 0.0679731 -0.000951145)
(10.17 0.143934 -0.00156318)
(10.0663 0.0948756 -0.0803642)
(10.0028 -0.0267023 -0.0951358)
(9.99469 -0.0917256 -0.0579336)
(10.0102 -0.0741207 0.00696453)
(10.0252 -0.0259298 0.0767641)
(10.043 0.00799814 0.124107)
(10.0703 0.0183089 0.136358)
(10.1058 0.0170272 0.119255)
(10.1459 0.0168712 0.0862102)
(10.1884 0.0216629 0.0494181)
(10.2306 0.0278365 0.01644)
(10.2687 0.0300364 -0.00993428)
(10.2963 0.0252198 -0.0295093)
(10.3096 0.0142533 -0.0434949)
(10.3073 -0.000331466 -0.0513965)
(10.2899 -0.0139268 -0.0547457)
(9.90622 0.0834245 -0.173276)
(9.91054 0.0861319 -0.0521841)
(9.99723 0.0413018 -0.0403643)
(10.0696 0.0218656 -0.0415609)
(10.0611 0.0214027 -0.0395459)
(10.0246 0.0135461 -0.0184118)
(10.0219 -0.00275742 0.020453)
(10.0587 -0.0172102 0.0558334)
(10.11 -0.0243693 0.0673981)
(10.1555 -0.025576 0.0512041)
(10.1879 -0.0243563 0.0196271)
(10.21 -0.0236543 -0.00965514)
(10.2279 -0.0246635 -0.0243378)
(10.2455 -0.0280247 -0.0222491)
(10.2603 -0.0342094 -0.00588567)
(10.2683 -0.0423594 0.018776)
(10.2655 -0.0519127 0.0468883)
(10.2498 -0.0604905 0.0737499)
(9.93728 0.0511551 0.0685227)
(10.0508 -0.0321429 0.0216682)
(10.0277 -0.0513076 0.0291295)
(10.0248 -0.0344611 0.0254318)
(10.0467 -0.0419353 0.0154003)
(10.0664 -0.0603458 0.00692789)
(10.0629 -0.0599968 0.0131616)
(10.0427 -0.0348469 0.032314)
(10.0275 0.00153571 0.048032)
(10.0322 0.0304967 0.0477681)
(10.0589 0.0403029 0.0329646)
(10.0992 0.0307703 0.0134823)
(10.1417 0.00985262 -0.00148246)
(10.1773 -0.0119504 -0.0099947)
(10.2012 -0.0267687 -0.0160332)
(10.2111 -0.0315702 -0.0228179)
(10.2085 -0.0278189 -0.0333241)
(10.1945 -0.0204788 -0.0416752)
(9.96735 0.0787195 -0.0962209)
(9.92174 0.0466597 -0.0173678)
(9.97897 0.0312895 -0.0536605)
(10.0521 0.0490881 -0.104218)
(10.1086 0.0865161 -0.0966794)
(10.1312 0.11367 -0.0522918)
(10.1237 0.112702 -0.0117354)
(10.1052 0.0915635 0.0106932)
(10.0895 0.0701693 0.0236459)
(10.0842 0.0608929 0.0376085)
(10.0971 0.063038 0.0544558)
(10.1341 0.0702685 0.0685938)
(10.1921 0.0778164 0.0735856)
(10.2643 0.0827034 0.064782)
(10.3377 0.0823571 0.0431869)
(10.4067 0.0754993 0.0118411)
(10.4611 0.0625671 -0.0225193)
(10.4992 0.0462953 -0.0549882)
(10.184 -0.0437517 -0.0945816)
(10.1823 0.0486708 0.0347393)
(10.164 0.0434327 0.0265415)
(10.1104 0.0285085 0.00471733)
(10.1044 0.0366477 -0.00877023)
(10.1619 0.0625655 -0.0300219)
(10.2246 0.0898156 -0.0530987)
(10.2423 0.104951 -0.0613512)
(10.2122 0.103587 -0.0469486)
(10.1687 0.0883898 -0.0159871)
(10.1512 0.0660083 0.0197002)
(10.1796 0.0439714 0.0501446)
(10.2459 0.027657 0.0704527)
(10.3293 0.019779 0.0780631)
(10.3986 0.0187892 0.0747449)
(10.4356 0.0214186 0.0624343)
(10.4256 0.0268884 0.0473359)
(10.3809 0.0295925 0.032253)
(10.11 0.122937 -0.0990921)
(9.97232 0.0793069 -0.0314632)
(9.92608 0.0711376 0.0158071)
(9.9456 0.0812951 0.0567526)
(10.0086 0.0796625 0.0809926)
(10.0848 0.0742329 0.0820227)
(10.1518 0.0795902 0.0585463)
(10.2049 0.0912144 0.0197554)
(10.2412 0.0924355 -0.017578)
(10.2531 0.0729576 -0.0399912)
(10.2366 0.0382743 -0.0433584)
(10.1972 0.00438365 -0.0329907)
(10.1483 -0.0131261 -0.0177427)
(10.1035 -0.00667048 -0.00571707)
(10.0741 0.020657 0.00117677)
(10.0627 0.0582866 0.00355531)
(10.069 0.0937872 0.00477717)
(10.0928 0.114985 0.007116)
(10.1387 0.0733376 0.0660935)
(10.0486 0.131736 0.0131001)
(9.92897 0.0552038 0.0204817)
(9.86903 0.00716469 0.0273225)
(9.92167 0.0132551 0.0375474)
(10.0107 0.0408801 0.0545327)
(10.0593 0.062068 0.0600828)
(10.0541 0.0685166 0.0379026)
(10.0168 0.0655456 -0.00372943)
(9.97087 0.0621923 -0.0411822)
(9.93273 0.0630852 -0.0570514)
(9.91152 0.0672745 -0.0505907)
(9.90857 0.0712274 -0.0316283)
(9.92165 0.0723113 -0.0124069)
(9.94624 0.0685218 0.000756438)
(9.97896 0.0608903 0.00671145)
(10.0164 0.0472558 0.00895426)
(10.0539 0.0326633 0.0119371)
(9.87168 0.0104546 0.0364751)
(10.0135 0.113261 -0.0519023)
(10.0474 0.138001 -0.0729419)
(10.0402 0.0858645 -0.0412249)
(10.0617 0.0319133 -0.0050028)
(10.1131 0.0317269 0.00827988)
(10.1556 0.0815944 -0.000906645)
(10.1648 0.139212 -0.0119643)
(10.1378 0.164722 -0.00466438)
(10.0873 0.145367 0.0235002)
(10.035 0.0930831 0.0567674)
(10.0024 0.0319064 0.0768212)
(9.99976 -0.0164109 0.0753895)
(10.0256 -0.0402473 0.0569398)
(10.0703 -0.0396855 0.0320738)
(10.1183 -0.0234541 0.012099)
(10.1598 -0.000113576 0.00329609)
(10.1811 0.0191349 0.00884145)
(9.97581 0.0451879 0.0937219)
(9.95782 0.093695 0.149369)
(10.0169 0.0468851 0.0592084)
(10.0371 0.0160294 0.0048878)
(10.0129 0.0138569 -0.0161905)
(10.0002 0.020988 -0.0250893)
(10.0269 0.0360481 -0.0236716)
(10.0826 0.0637775 -0.0137848)
(10.1441 0.0981178 -0.00455185)
(10.1903 0.125838 -0.00617035)
(10.2096 0.135082 -0.0213348)
(10.2029 0.12178 -0.0425138)
(10.1811 0.0923983 -0.0583524)
(10.1567 0.0576511 -0.0609179)
(10.1421 0.0287382 -0.0511276)
(10.1415 0.0105899 -0.0333144)
(10.1558 0.0050047 -0.0142334)
(10.1797 0.0100886 0.00192524)
(9.81919 0.0146325 -0.0737837)
(9.85637 0.0530461 -0.00817988)
(9.85081 0.0365388 0.0239021)
(9.85356 0.0672334 0.0497099)
(9.87791 0.0950464 0.0638552)
(9.8888 0.106465 0.0599193)
(9.87324 0.109267 0.038597)
(9.85236 0.104543 0.00705563)
(9.85379 0.0898815 -0.0212771)
(9.88509 0.0673745 -0.0344763)
(9.93429 0.0433151 -0.0293452)
(9.98371 0.0237334 -0.0112137)
(10.0211 0.0119244 0.0105945)
(10.0431 0.00612352 0.0272826)
(10.0534 0.00354901 0.033795)
(10.061 0.00309987 0.0302079)
(10.0706 0.0039403 0.0189661)
(10.0889 0.00937517 0.00377885)
(10.028 0.0788898 -0.106849)
(10.1386 0.0925231 -0.00407745)
(10.1015 0.0586438 -0.00141341)
(10.0035 0.0546796 -0.0356886)
(9.92978 0.0767541 -0.0472483)
(9.93496 0.0979941 -0.0358723)
(10.0017 0.0989808 -0.0160223)
(10.0961 0.076914 0.00320481)
(10.1928 0.0429755 0.0183172)
(10.2691 0.0128065 0.0278952)
(10.309 -0.00271669 0.0319259)
(10.3096 -0.00361075 0.032261)
(10.2793 0.00210815 0.0326596)
(10.2299 0.00469864 0.0363676)
(10.1734 -0.000577601 0.0435683)
(10.1196 -0.010649 0.0511288)
(10.0734 -0.0214426 0.0563974)
(10.0393 -0.0239553 0.0550363)
(9.94314 -0.0194927 0.0803092)